ITEM: TIMESTEP
1175000
ITEM: NUMBER OF ATOMS
36624
ITEM: BOX BOUNDS xy xz yz pp pp pp
-1.9250230959344863e+00 9.9106544970513795e+01 -1.5420389022463128e+00
-2.4838470322558521e+00 5.2502154010751269e+01 8.9530607768310091e+00
-4.3211318482022925e+01 4.3211318482022925e+01 -2.2458930215035622e+00
ITEM: ATOMS id type x y z
18354 4 4.84072 11.9872 -39.1003
18202 4 13.9266 11.901 -39.0568
21113 3 3.49309 0.577236 -39.0714
24809 3 21.5959 0.51397 -39.1131
21127 5 6.28772 -0.284347 -37.0465
18462 1 0.965409 11.7126 -37.0227
21508 2 2.37799 -0.608639 -22.5924
20947 5 9.6376 2.77078 -43.0953
20961 1 12.5671 0.529928 -39.1308
21021 4 7.38847 0.806846 -41.139
20932 5 16.3327 0.7384 -41.176
18200 3 16.394 12.4921 -39.0434
18251 1 7.27737 12.4919 -39.1324
35723 5 0.420579 2.74098 -37.009
32999 4 -0.0282115 10.7555 -39.1034
20990 1 17.7794 0.341485 -37.031
18320 5 16.6164 10.9954 -30.8638
22297 4 21.8403 10.7737 -28.776
22314 5 22.864 11.7467 -26.7507
21043 3 8.69199 0.321309 -37.023
18258 2 12.7515 5.86778 -43.1198
21058 5 13.9981 0.0617644 -34.9926
20918 4 18.4997 2.77787 -43.1268
33099 2 0.5746 7.89497 -35.007
22177 3 22.8139 6.63812 -34.9449
24698 2 20.2448 1.01784 -43.0671
35775 1 0.69636 1.30643 -34.8938
22053 1 21.5894 12.2594 -36.9438
18447 2 16.5737 10.9587 -24.7078
22316 3 23.1979 10.3369 -24.7003
32977 4 -0.399374 7.00495 -43.2409
18731 1 1.88203 7.38392 -24.7343
21132 2 4.90688 0.102393 -34.9445
18541 3 14.1707 10.3407 -24.7719
18601 4 3.64903 10.8235 -28.7532
21379 2 1.73154 2.28287 -26.7242
18260 4 11.0116 7.55663 -43.0903
18636 5 7.49491 10.9658 -24.6481
18450 1 17.629 11.9694 -22.5904
20977 3 15.3272 -0.284794 -37.0587
18474 3 2.32805 11.2668 -32.874
24828 1 23.0457 0.0545226 -34.9526
35714 4 0.747867 1.37298 -41.0984
21207 3 15.2386 -0.410437 -24.6749
21008 4 5.6632 2.563 -41.1604
20930 3 18.8074 1.32195 -41.1155
20944 1 11.2357 0.948991 -43.2241
20925 1 14.6684 2.53857 -41.1651
18620 1 5.07049 10.3807 -24.6654
35718 4 0.12493 4.17068 -39.0844
20935 1 17.4113 1.75229 -39.0985
20949 3 9.86165 1.29722 -41.1164
18854 2 2.17471 5.9915 -22.6517
21115 4 1.77517 2.31761 -39.0969
20959 2 12.2659 1.94885 -41.1686
21117 3 2.15726 0.909101 -36.9963
20962 1 10.8683 2.27267 -39.0377
24960 5 22.9656 -0.0491427 -28.7209
20975 1 14.9674 1.12896 -39.06
20978 5 13.5666 1.49989 -37.028
24945 5 20.243 0.801404 -30.8083
24941 4 21.6383 0.419619 -32.8866
20991 4 18.8461 1.29549 -34.9528
20993 2 16.3783 0.701607 -34.9686
20999 5 19.1608 -0.124622 -32.8921
24826 4 22.6767 1.46126 -37.0023
21010 4 3.1985 1.97963 -41.1245
24813 2 20.2193 0.907519 -37.0229
24811 5 19.8706 2.30192 -39.0474
21022 5 8.44118 1.7332 -39.0876
21024 5 5.97739 1.14841 -39.0843
22185 3 21.5077 12.226 -30.786
24706 1 21.2769 1.96148 -41.0979
21041 2 11.1293 0.90632 -37.0055
21046 4 9.77295 1.31947 -34.9247
21063 2 12.532 0.50234 -32.9083
35702 3 0.390561 2.78292 -43.1381
22036 4 20.2374 12.7007 -41.1126
21078 1 14.9407 1.06293 -32.8632
18412 3 12.472 12.2506 -30.9099
21391 2 6.17601 -0.423319 -24.6904
21080 1 15.2944 -0.325327 -30.8182
21093 4 17.7525 0.281924 -30.7986
18415 1 11.0994 12.6055 -28.8269
21102 3 19.0814 -0.195656 -26.7403
18357 2 3.37315 12.3014 -37.0146
22310 4 23.5129 8.97223 -28.765
33000 3 0.226924 9.32608 -37.0148
18618 5 4.76214 11.8149 -26.7029
21130 3 4.61251 1.55601 -36.962
18432 2 13.7653 11.7812 -26.7959
21299 5 10.0668 -0.229613 -26.7229
21148 5 7.34504 0.684068 -34.9332
32943 4 -0.341457 12.137 -41.1008
21151 2 5.91045 1.09582 -32.8736
21264 2 4.81128 0.0177884 -28.7752
21167 1 10.1271 -0.0804476 -32.938
21259 3 6.23507 -0.345124 -30.8959
21170 1 8.69797 0.259557 -30.8604
21185 5 13.879 0.0772467 -28.8034
21245 5 3.47106 0.464658 -32.8733
22300 2 20.1474 12.6075 -28.7747
21118 3 1.48783 3.73839 -34.9501
22431 3 19.3203 10.1659 -22.6338
20936 5 15.694 3.52465 -39.1123
20933 3 17.072 3.17745 -41.1489
20950 5 8.16286 3.12523 -41.0914
35722 2 1.03877 -0.0473168 -39.0833
21025 3 6.72278 3.57277 -39.0456
20979 1 14.4287 3.90647 -36.9982
24707 5 22.0056 4.35783 -41.165
20926 4 12.9824 4.38909 -41.135
21003 1 1.46366 3.77776 -41.117
20951 4 9.2022 4.15382 -39.0243
20934 2 18.1319 4.136 -39.0665
21028 2 5.3338 3.91131 -36.963
20948 4 10.636 3.75744 -41.0567
21220 3 17.6959 0.206537 -24.6485
21011 5 3.90294 4.41728 -41.1768
21221 2 18.7201 1.21708 -22.6256
21223 3 16.3134 0.635566 -22.6038
18340 4 2.09691 12.7966 -41.0988
24699 3 19.5416 3.74113 -41.0994
32939 5 0.395135 9.37454 -43.1153
25090 3 22.621 1.36895 -24.6248
21191 4 10.8178 2.22249 -26.7621
21190 3 12.4959 0.402073 -26.7133
21247 3 1.7458 2.25828 -32.9156
21205 1 14.9963 0.994424 -26.6947
33100 2 0.86195 6.48665 -32.9174
20939 4 18.4934 2.67306 -37.025
20960 2 13.293 2.90335 -39.0877
20964 3 11.9075 3.28695 -36.9935
24958 5 22.6669 1.37158 -30.8163
20976 4 16.0848 2.07905 -37.0179
24943 5 19.915 2.23929 -32.8582
20981 1 14.6751 2.43161 -34.9603
20994 1 17.1093 3.09258 -34.9576
20996 5 17.3843 1.64603 -32.9155
21000 2 18.5101 2.63099 -30.7763
24831 1 22.3597 2.86302 -32.9053
24829 4 21.332 1.90861 -34.9272
24961 3 21.2599 1.83399 -28.7466
25077 3 20.1105 0.809514 -24.6875
24814 4 19.5968 3.68373 -34.9577
24812 2 21.0023 3.28207 -36.9785
21012 5 4.26543 2.97356 -39.0998
25075 2 19.8273 2.19281 -26.6932
21027 2 7.04461 2.14039 -36.9882
21208 2 13.5852 1.38568 -24.7376
24708 4 22.3243 2.88863 -39.0462
21044 1 9.47361 2.75216 -36.9873
21045 4 10.4895 3.69094 -34.8693
21047 3 8.05899 3.12128 -34.9652
21061 5 12.1824 1.86946 -34.9527
21062 2 13.2613 2.91809 -32.9008
21064 2 10.8354 2.31147 -32.8512
21249 4 2.11074 0.87841 -30.8608
21412 3 7.21379 0.634887 -22.6512
21079 2 16.0417 2.02578 -30.8444
21930 3 21.6472 12.4091 -43.1904
21396 4 4.79222 -0.0152279 -22.586
21394 4 4.53995 1.40949 -24.6957
21081 4 13.5568 1.50439 -30.825
21084 3 14.6598 2.39404 -28.7962
21094 4 18.8119 1.19633 -28.7591
21377 1 3.41774 0.490171 -26.6872
21096 4 16.3946 0.653157 -28.7409
18558 2 16.8957 9.53904 -22.628
21099 3 17.4603 1.58954 -26.7388
25073 2 21.5547 0.424137 -26.7205
25092 1 22.8491 -0.00660094 -22.5938
22182 3 22.8759 11.8252 -32.8635
21116 3 2.91093 3.25597 -37.0607
21319 2 11.3778 -0.6577 -22.64
21317 3 13.8148 -0.0234364 -22.6094
21131 2 5.63873 2.51935 -34.922
21305 5 9.68485 1.16167 -22.6112
21302 5 8.61832 0.14323 -24.7071
21300 3 11.1008 0.77326 -24.6884
21133 1 3.18364 1.93054 -34.955
21135 1 4.3091 2.88877 -32.9171
21283 1 5.81324 0.999624 -26.7302
21281 2 8.31274 1.66312 -26.7742
21280 5 7.2008 0.647189 -28.7956
21149 5 8.39657 1.71238 -32.8823
21154 2 6.99781 2.11944 -30.8491
25204 1 20.4425 -0.60959 -22.567
21265 2 3.12556 1.83805 -28.8177
21263 4 5.54199 2.45637 -28.7695
21262 3 4.56601 1.47293 -30.8017
21168 2 11.0972 0.843412 -30.8474
21171 4 9.46738 2.68429 -30.7759
21173 2 9.75385 1.23922 -28.7967
21188 4 12.1302 1.84611 -28.8115
18397 5 10.0272 11.6371 -30.8456
18529 1 9.97343 11.5838 -24.6927
18431 2 15.5202 10.0077 -26.7605
22291 4 23.0983 5.25444 -32.8635
20919 2 12.1091 3.38941 -43.1735
18723 3 1.1741 5.05181 -30.8733
18375 5 6.14378 11.4834 -34.9513
22422 3 19.0084 11.595 -24.6688
18234 4 3.49396 12.4732 -43.1154
18507 5 6.13821 11.4159 -28.8284
18497 4 8.83839 5.50666 -34.9218
18406 1 14.0529 5.2995 -32.9518
21206 1 15.9959 1.99323 -24.6854
20937 5 16.8333 4.56872 -36.9901
18467 3 1.94417 7.48174 -37.0016
32997 2 0.874959 6.55358 -39.0884
18499 1 7.42224 5.83415 -32.9143
22288 2 20.3931 6.06816 -34.9729
21029 2 6.42845 4.8804 -34.8991
22287 1 19.2977 5.11351 -36.9786
20963 3 11.603 4.74193 -39.0608
18591 4 1.21445 5.11537 -37.041
18392 4 11.4408 11.2537 -32.9049
18504 2 7.53766 11.0471 -30.9085
20924 1 15.4143 4.99705 -41.1133
21193 3 11.9249 3.23911 -24.7561
18197 1 16.1932 7.37271 -41.1881
22163 4 20.0637 7.46815 -37.0107
22162 3 21.7761 5.63772 -36.9958
18211 1 17.8533 5.52924 -41.1345
18212 1 18.6356 7.84911 -41.0758
18213 2 18.9397 6.49318 -39.0693
22160 5 21.4167 7.10682 -39.0655
18460 3 2.22132 6.18599 -41.2106
22156 4 20.3251 6.10522 -41.1456
18510 4 7.24609 12.3887 -26.6688
18279 3 14.0339 5.36463 -39.0426
22034 5 21.1085 8.49239 -41.1878
21013 3 2.55824 4.7691 -39.1247
18592 2 2.23648 6.06102 -34.9769
22292 1 21.4412 7.05754 -32.9303
18463 1 5.0204 5.34338 -39.0396
18262 3 11.3392 6.14314 -41.0498
18263 5 9.63328 7.95711 -41.1068
18424 5 15.0902 6.22414 -30.8597
18422 4 16.4685 5.80385 -32.8938
18277 4 13.7739 6.83641 -41.0693
18278 2 14.8109 7.76738 -39.0486
24709 5 20.6191 4.68036 -39.0591
18280 2 12.3903 7.12739 -39.0331
32996 2 0.547491 7.96782 -41.1307
18295 1 16.4908 5.94593 -39.087
18296 2 17.569 6.89778 -37.0325
18297 1 15.1285 6.33833 -37.0314
18300 5 16.204 7.26897 -34.9446
18316 3 18.947 6.36897 -32.9172
18733 3 3.6509 10.7314 -22.5982
18314 4 17.94 5.4839 -34.9624
18386 3 10.2382 5.10049 -36.9512
18611 2 6.03427 6.22054 -30.8654
21026 2 7.77316 4.50766 -36.9814
18348 1 7.16671 7.32556 -41.1669
18349 5 4.68654 6.77304 -41.1711
18352 5 5.77544 7.7332 -39.059
24964 2 20.565 4.59658 -26.7098
20980 3 15.4791 4.88979 -34.9743
18365 4 8.89997 5.57883 -41.051
18366 2 9.92782 6.51903 -38.9984
18367 3 7.48699 5.88157 -39.0823
18370 2 8.52085 6.89675 -36.9976
18305 2 13.8397 11.8472 -32.9111
18385 2 12.6878 5.70115 -37.0345
21192 1 11.5886 4.59667 -26.7586
18387 2 10.9791 7.53889 -36.9551
18389 3 11.2748 6.04935 -34.9232
18498 2 9.84712 6.47339 -32.8896
21224 4 17.0672 3.03972 -22.6377
18481 1 4.63137 6.67298 -34.9337
18480 3 7.17363 7.32613 -34.9258
18404 5 13.7805 6.68885 -34.9518
18479 4 6.07473 6.32937 -36.9287
18466 1 3.61882 5.68463 -37.062
18464 2 3.33302 7.10924 -39.122
20943 2 6.45232 4.92844 -41.0982
18595 4 4.97202 5.23339 -32.901
21209 3 14.3081 3.77951 -24.7098
21210 2 15.364 4.78665 -22.6031
18517 3 12.6733 5.64945 -30.9058
21211 3 14.6477 2.4331 -22.7096
21212 4 12.922 4.20868 -22.6825
22549 1 19.1934 4.99252 -24.6263
18518 2 10.1739 5.07695 -30.8801
18724 3 2.22425 6.04683 -28.7781
21136 3 2.54949 4.65652 -32.9445
24946 4 19.548 3.60659 -28.7712
24944 3 20.9835 3.23532 -30.8243
20982 5 13.0043 4.30374 -35.0184
20995 2 18.1891 4.05079 -32.9167
24983 3 23.3664 3.77025 -24.6376
20997 2 15.687 3.44727 -32.9624
20998 3 16.8321 4.41818 -30.8652
24832 4 20.6521 4.66723 -32.9321
24830 1 22.0553 4.25912 -34.943
22419 1 19.2321 4.97088 -30.8473
25078 2 19.5 3.58399 -22.583
25076 3 20.8663 3.17497 -24.6752
25094 2 21.9466 4.20944 -22.649
25093 5 21.2072 1.8066 -22.5901
24962 1 22.0095 4.20946 -28.8119
18727 3 4.98884 5.18697 -26.7678
20938 4 19.1602 -0.0401771 -39.049
18631 1 7.46219 5.86259 -26.7321
18521 4 11.2739 6.02362 -28.8432
18538 1 14.0192 5.17741 -26.7455
18554 4 16.3813 5.78467 -26.7111
21048 1 9.16491 4.09949 -32.8793
18598 1 3.63474 5.64162 -30.8739
18650 3 10.1612 4.98912 -24.7171
21065 3 11.5588 4.68027 -32.8986
21066 2 11.8823 3.26948 -30.8176
18606 2 2.24097 11.2167 -26.7686
25091 4 23.645 2.43511 -22.5603
21398 2 3.88436 4.20523 -22.6771
21397 4 3.09647 1.80362 -22.5905
21395 4 5.49601 2.43184 -22.6692
21082 4 14.3487 3.82001 -30.8589
21083 5 15.4087 4.80771 -28.7596
21085 4 12.9471 4.21217 -28.8046
21380 1 2.81095 3.16157 -24.6396
22420 1 20.2728 5.99412 -28.7846
21097 1 17.0919 3.03419 -28.7582
21098 2 18.1597 3.98929 -26.696
22294 4 21.6441 5.59402 -30.8298
21100 1 15.7025 3.36041 -26.7211
21101 2 16.7456 4.38226 -24.6779
21103 2 18.3948 2.61087 -24.6318
24963 5 22.2651 2.77266 -26.7368
21320 5 12.1801 1.73007 -22.6562
18302 3 15.2393 11.4884 -34.8988
21306 5 7.98462 2.99419 -22.5936
21304 5 10.5132 3.61894 -22.6159
21303 5 9.45925 2.63944 -24.7039
21134 2 3.97672 4.30037 -34.9598
22423 3 23.0188 5.20501 -26.7458
21288 2 6.29378 4.83365 -22.6248
21287 1 5.23575 3.79386 -24.7266
21286 5 6.94314 2.0354 -24.7266
21285 3 7.73967 4.45118 -24.6439
21284 3 6.62888 3.41007 -26.7701
21152 1 6.75447 3.4896 -32.8813
21153 1 7.75554 4.46375 -30.8393
21155 1 5.34174 3.85253 -30.8619
21156 1 6.40473 4.8468 -28.7995
21268 1 2.48114 4.63343 -26.6903
21267 1 4.13029 2.82186 -26.7266
21266 3 3.92573 4.27774 -28.7807
21172 2 10.4935 3.65292 -28.7992
21174 4 8.04547 3.07441 -28.7722
21175 4 9.10753 4.04435 -26.7182
21248 1 2.90319 3.24238 -30.8326
18441 2 17.8553 5.42501 -28.8456
18629 3 8.85734 5.4756 -28.7531
21189 2 13.2627 2.78395 -26.7627
18373 2 8.67299 12.0315 -35.0287
22028 2 19.2616 11.6898 -43.1308
18445 5 17.9177 10.57 -26.7385
18486 3 4.82208 11.8427 -32.8539
20956 1 13.9315 0.130578 -41.2046
18270 2 10.0723 11.7046 -37.0504
18523 2 10.3096 10.1953 -28.7896
22158 5 19.1397 11.6415 -37.0094
22155 5 19.1734 5.15814 -43.1224
18205 1 14.9496 12.895 -37.0355
18220 2 17.6953 12.0653 -34.9565
21001 1 2.81221 3.3998 -43.214
18159 2 17.7855 12.0678 -41.1514
18471 4 1.29033 10.2944 -34.9554
22426 2 21.6907 5.55153 -24.6779
18339 4 1.38349 10.4027 -41.1163
18526 1 8.89404 10.581 -26.7154
22309 1 22.7325 6.62096 -28.8314
18729 2 4.32501 7.9916 -24.6761
22421 2 19.6603 8.77672 -26.7671
22425 1 22.3968 7.94465 -24.68
18542 3 13.3688 7.96591 -24.6813
18185 2 12.8723 10.9694 -41.0877
18616 5 5.71856 7.61236 -26.7184
22181 4 22.1858 9.4082 -32.867
18196 3 16.9977 9.72348 -41.1452
18198 4 14.5463 9.1801 -41.1272
18199 5 15.3033 11.5426 -41.1039
18201 2 15.6203 10.106 -39.0659
18638 1 7.80702 9.48201 -22.5878
22167 5 19.4598 10.3164 -34.9129
22166 4 21.0977 8.42854 -34.9798
24697 2 20.8843 3.42232 -43.1957
22165 4 21.8469 10.8279 -34.9138
22164 5 20.8315 9.8321 -37.0186
18214 3 17.2297 8.29031 -39.0766
18215 4 18.0704 10.6929 -39.0897
18216 4 18.3393 9.26255 -37.0421
18217 5 16.649 11.1042 -37.0235
22161 4 22.5393 8.06366 -36.986
18259 4 10.3665 5.14707 -43.0355
22157 2 19.7645 8.86901 -39.0772
22049 5 22.2246 9.44433 -39.0352
22038 2 20.5316 11.2806 -39.0614
22442 2 23.4283 8.93798 -22.6391
22035 3 19.4273 10.2951 -41.1403
22033 5 21.8854 10.9045 -41.1201
18461 3 1.63877 8.91846 -39.0741
22296 4 20.7716 9.81316 -30.8091
18336 2 2.83223 10.1048 -43.2087
18247 5 7.86312 9.7408 -41.1492
18248 2 6.16671 11.5548 -41.1575
18560 3 14.3993 9.02275 -22.6217
22298 5 21.0546 8.42448 -28.7551
18557 3 15.8332 8.57855 -24.6597
22170 3 20.4624 11.235 -32.8154
18261 4 12.087 8.58662 -41.1025
18264 5 10.3863 10.3624 -41.0841
18265 3 11.455 11.3174 -39.0473
18266 1 10.7188 8.9063 -39.0191
18267 3 8.99582 10.7087 -39.0195
18746 2 5.34664 8.97214 -22.6572
22293 2 22.4517 7.99056 -30.8708
18281 4 13.1695 9.52823 -39.0476
18282 2 14.2126 10.4666 -36.9627
18283 2 13.47 8.12261 -36.9968
18284 4 11.7463 9.90968 -37.0302
22313 2 22.0906 9.33909 -26.7553
18287 1 12.833 10.8801 -34.9376
18537 3 14.7539 7.59578 -26.7295
18543 3 11.6824 9.79674 -24.688
18298 2 15.9133 8.70957 -36.9958
18299 2 16.956 9.664 -34.9316
18301 2 14.524 9.03364 -34.9604
18409 4 14.1079 10.4384 -30.8222
18540 1 13.0241 9.42007 -26.7348
18304 3 15.5825 10.0545 -32.882
18617 3 3.94455 9.40768 -26.7575
18632 4 8.16872 8.18196 -26.6948
22299 4 19.3649 10.2609 -28.797
18536 3 13.6561 6.61883 -28.763
18734 4 2.89736 8.36499 -22.6513
18614 3 5.34073 8.99889 -28.8351
18315 5 18.6661 7.89167 -34.9745
18317 1 17.282 8.25041 -32.8659
18318 2 18.0249 10.664 -32.8989
18319 4 18.3043 9.25189 -30.8463
18612 3 7.15565 7.2429 -28.7874
18599 2 1.90577 7.3962 -30.8849
18602 1 2.92827 8.42316 -28.81
18600 5 2.63159 9.82049 -30.8177
18597 2 4.31803 8.00019 -30.8664
18596 4 3.2817 7.05139 -32.9088
22430 2 21.0423 8.3741 -22.6699
18613 2 4.63756 6.59772 -28.8172
22295 5 20.0204 7.37615 -30.8472
18337 1 3.78151 11.0088 -41.0817
18338 3 2.99326 8.60905 -41.1649
18342 2 2.36062 11.3239 -39.0554
22289 5 19.7592 8.86501 -32.8751
18350 2 5.42508 9.19098 -41.2176
18351 4 6.50093 10.1458 -39.0912
18353 3 4.03117 9.55586 -39.1304
18285 5 12.5429 12.2524 -36.9801
18356 5 5.10591 10.5206 -37.0234
18525 3 10.6301 8.80221 -26.7054
18522 2 9.55293 7.85962 -28.8089
18368 5 8.26446 8.31471 -39.055
18369 1 9.27735 9.35152 -36.9778
18371 5 6.80762 8.73184 -36.9928
18372 1 7.5609 11.1026 -36.9978
18374 4 7.88928 9.64293 -34.9439
18520 4 11.9996 8.37819 -28.8201
18519 4 10.9612 7.41535 -30.851
18506 3 7.83094 9.64567 -28.8136
18488 1 5.02385 10.4148 -30.8303
18503 3 6.78183 8.63479 -30.86
18502 2 8.53249 6.84384 -30.8732
18501 1 9.26354 9.23982 -30.8578
18500 3 8.22133 8.25523 -32.9143
18388 5 12.0782 8.50435 -34.9711
18390 2 9.6346 7.88868 -34.959
18391 3 10.367 10.2781 -34.932
18725 4 1.5155 8.79082 -26.773
18393 2 10.6675 8.88169 -32.8557
18394 3 8.97402 10.6921 -32.9059
18485 1 3.96595 9.45981 -32.913
18484 5 5.69215 7.63466 -32.866
18483 5 6.50569 10.0334 -32.8953
18482 1 5.43281 9.04135 -34.9593
18405 4 14.8203 7.66799 -32.877
18407 4 12.2998 7.04741 -32.9047
18408 4 13.0984 9.42879 -32.9071
18655 3 10.3036 10.1684 -22.6363
18410 1 13.4248 8.01295 -30.8727
18411 4 11.7107 9.81078 -30.8549
18470 5 2.9756 8.4547 -34.9186
18469 3 3.72416 10.9052 -34.9448
18468 3 2.61918 9.89739 -36.9997
18465 3 4.32739 8.08448 -37.0245
22429 1 21.7775 10.7756 -22.6287
18423 4 17.5585 6.85734 -30.842
18425 3 15.8667 8.61518 -30.8511
18426 4 16.9265 9.6198 -28.829
18427 4 16.1782 7.24442 -28.7611
18428 5 14.4203 9.06383 -28.8088
18444 3 17.1908 8.21157 -26.791
18442 2 18.5355 7.82731 -28.8204
22424 2 21.3588 6.94905 -26.7455
18414 3 12.7276 10.8621 -28.8001
18539 3 12.3004 6.9988 -26.7601
18593 1 1.54667 8.86949 -32.9092
18728 4 3.25531 7.01271 -26.7575
18651 4 10.9074 7.39125 -24.6743
22441 1 22.7284 6.57484 -22.6272
22427 4 20.007 7.39716 -24.6892
18743 1 6.04333 6.1868 -24.7055
18654 4 9.55237 7.73927 -22.5757
18745 2 4.58049 6.56572 -22.6352
22550 3 20.2295 5.9857 -22.6729
18730 4 3.6007 5.6075 -24.7103
18761 1 8.80956 5.3975 -22.5918
18649 2 12.6158 5.62138 -24.715
18634 2 8.55145 6.80058 -24.6386
18573 2 17.8213 5.37429 -22.6386
18443 5 18.8544 6.42586 -26.7382
18630 1 9.89653 6.46384 -26.7333
18668 2 13.6427 6.58966 -22.6209
18633 1 9.19882 9.19787 -24.6271
18635 1 6.77444 8.53285 -24.6234
18555 5 17.4889 6.77051 -24.6615
18574 1 18.5957 7.81206 -22.6319
18744 1 7.04809 7.13094 -22.6493
18556 2 15.0103 6.13128 -24.6428
18653 2 11.2601 5.98458 -22.6245
18559 4 16.0817 7.17665 -22.6239
18652 1 11.9396 8.38918 -22.6771
18446 2 18.2881 9.19549 -24.7242
22290 2 19.0891 11.6322 -30.811
32995 2 -0.171559 5.5622 -41.1262
18615 5 6.44689 10.0296 -26.7355
24959 4 23.7186 2.39762 -28.8154
18639 2 6.07382 11.3391 -22.6172
21009 1 4.90634 0.188735 -41.1326
18524 3 11.3484 11.1632 -26.7696
18732 2 2.62254 9.7832 -24.7238
18546 3 12.7045 10.805 -22.6226
22428 4 20.6922 9.75508 -24.7034
21040 2 10.1411 -0.0947388 -39.0428
18246 3 8.64483 12.1088 -41.2205
18505 5 8.58994 12.0179 -28.7681
18603 4 1.19546 10.2295 -28.7756
22302 3 20.4494 11.1894 -26.7394
21250 1 1.45826 3.65196 -28.7832
18429 2 15.2232 11.4452 -28.7668
18561 3 15.1365 11.3857 -22.6301
20923 2 14.4046 3.99659 -43.1529
18332 2 1.0741 11.8265 -43.1135
18637 3 8.55032 11.901 -22.6143
18186 1 11.1217 12.709 -41.1868
18472 2 2.03291 12.6631 -34.9502
18594 4 0.907309 11.6547 -30.8006
18182 5 11.7305 9.96532 -43.1045
21381 3 2.02037 0.806936 -24.6368
18604 2 2.00819 12.6123 -28.7963
35783 4 1.00937 -0.136293 -32.8484
20929 5 17.8223 0.322266 -43.166
18489 4 3.36282 12.1937 -30.7935
18323 2 17.6513 12.0484 -28.8113
18288 1 11.1005 12.6319 -34.9449
18430 4 16.2586 12.422 -26.7206
18335 2 2.07078 7.66695 -43.2222
18621 2 3.32091 12.1643 -24.6816
20917 1 16.7829 4.54102 -43.1773
18303 1 16.3283 12.4179 -32.9076
18378 4 7.25114 12.4816 -32.9253
21007 3 4.54905 1.63248 -43.173
22317 3 21.4712 12.1327 -24.6514
18544 5 12.4144 12.2041 -24.7246
18181 1 13.5006 8.27289 -43.1175
22168 2 20.1709 12.6585 -34.922
21002 2 2.10875 1.06246 -43.0983
20946 5 8.75123 0.351733 -43.1987
22031 4 20.0268 7.55629 -43.2017
19033 2 12.9201 9.22424 -2.01493
22448 1 23.1447 10.3091 -18.4689
18962 2 16.9648 7.9291 -1.934
19025 4 11.2816 11.0036 -2.0317
18693 2 15.1081 11.365 -16.3995
18901 1 6.0238 11.2641 -10.2473
22662 1 19.5876 8.74685 -14.4358
19012 3 5.95388 11.2036 -4.09779
22733 4 19.4542 8.62933 -8.20197
18990 1 3.90201 9.29214 -8.19644
18805 1 14.0213 10.2503 -12.2937
19063 2 7.98251 8.03917 -1.99178
18564 2 13.7605 11.7426 -20.5115
18675 2 11.6143 9.76094 -18.5196
22741 3 21.5561 10.6155 -4.1097
19027 1 8.83275 10.3779 -1.92809
18882 3 5.00894 10.2928 -12.3696
18804 1 12.9674 9.31946 -14.3848
22558 1 20.6481 9.72059 -18.5714
18841 4 17.7954 10.4359 -8.20421
19024 5 10.1341 10.0316 -4.03912
25372 2 25.4877 -0.909422 -8.2016
18770 5 7.75456 9.5276 -16.4347
18987 2 5.29389 8.89155 -10.321
25375 2 25.6286 4.20774 -6.18782
18563 2 15.4704 9.92552 -20.5838
18895 3 9.10961 9.07898 -12.2968
19008 4 6.66816 8.45034 -6.107
25370 2 25.2467 0.507767 -10.2897
22700 4 25.3499 5.67058 -8.18721
18937 3 11.5341 9.64118 -6.12172
19021 1 11.8395 8.26133 -4.03355
18695 2 15.3971 9.93443 -14.3682
18897 4 6.68156 8.5008 -12.3995
18950 2 15.626 8.44186 -6.13352
22683 5 23.3721 8.82147 -10.2695
18789 5 10.5228 8.69012 -14.3922
18876 2 5.28584 8.9483 -16.449
18825 1 15.1025 11.268 -10.2893
18988 5 6.3686 9.86677 -8.19476
18919 2 10.4906 8.66737 -8.15838
22670 1 21.6348 10.6762 -10.2654
22572 4 23.4731 8.9312 -16.4487
18709 2 17.8707 10.561 -14.4344
22578 2 23.0528 10.3146 -12.3523
18738 3 2.29039 11.1736 -20.5794
21642 5 2.70185 3.12335 -12.2509
25334 3 20.342 -0.684355 -16.4513
18880 1 4.70985 11.6926 -14.3616
18963 3 17.71 10.277 -2.11706
22755 2 22.4688 11.6349 -2.03971
25205 1 21.4596 0.375659 -20.5528
22746 4 20.074 10.9492 -2.10033
19010 3 8.4439 11.8048 -4.04959
21229 1 19.0248 -0.225592 -20.5878
21512 1 2.74133 3.13651 -18.5156
25219 3 24.2253 -0.473497 -18.5096
21659 5 2.99507 1.62627 -10.2486
18954 3 15.0185 11.2457 -4.06156
18975 3 2.82587 8.25817 -10.2911
21546 5 7.48868 -0.872769 -14.38
21400 4 2.49841 4.58909 -20.5762
19040 5 3.09898 6.8272 -8.22528
18788 5 11.2395 11.0972 -14.4148
19059 3 4.46337 11.5862 -1.9837
21523 1 6.07198 -0.430769 -18.4831
21509 4 3.40684 0.388762 -20.5642
22708 5 24.0519 11.2644 -4.09235
18846 3 17.506 11.7685 -4.10818
22705 1 25.4349 10.7816 -6.11277
21451 1 11.3441 -0.611995 -16.4414
22687 1 22.7364 11.6446 -8.18886
18918 1 11.2082 11.0432 -8.21695
21431 5 9.94075 -0.199326 -20.5404
18562 2 16.1968 12.2828 -20.5525
21339 5 15.1792 -0.438569 -18.5232
18642 3 7.07467 12.3042 -20.5933
21322 3 12.4227 0.319073 -20.5343
18824 3 14.3015 8.86705 -10.232
22672 1 19.2138 10.0462 -10.2108
18974 5 3.55358 10.6485 -10.2194
18656 2 11.3609 11.107 -20.566
21529 1 3.03592 1.70752 -16.4385
22752 5 24.2748 9.93221 -1.98771
18768 5 7.4515 10.974 -18.4869
22689 2 23.0588 10.2485 -6.11959
18862 2 2.55906 9.71596 -18.4652
22740 5 20.5452 9.60154 -6.13087
18692 3 14.4396 9.03793 -16.4319
18843 4 16.4511 10.8212 -6.12188
18936 2 13.196 7.87605 -6.12501
22675 4 20.2527 11.0118 -8.21418
18917 2 10.1504 10.0754 -10.2183
22434 2 20.3713 11.1843 -20.5777
18920 3 8.75289 10.4387 -8.1827
22573 2 24.4642 9.93089 -14.4147
18771 3 6.07672 11.3553 -16.459
18956 2 15.3371 9.74274 -2.01823
19009 3 7.36534 10.8295 -6.08164
18672 5 13.0361 9.35833 -20.591
19011 2 7.69956 9.45237 -4.00913
19026 1 10.4458 8.55848 -1.98527
22707 1 25.7592 9.38668 -4.03375
18877 3 6.35141 9.87789 -14.4236
22597 5 24.1312 11.2448 -10.3168
19006 1 9.09637 9.05256 -6.11013
18827 1 15.3405 9.81711 -8.23646
18951 2 16.6523 9.38657 -4.1327
22754 3 21.8606 9.20187 -2.19373
19056 3 6.28042 9.83073 -1.95818
18935 3 13.9189 10.2353 -6.17373
22743 4 19.0899 9.9851 -4.12635
22593 5 24.7519 8.47196 -12.4021
18711 3 16.4581 10.8809 -12.3369
22561 3 19.2872 10.1836 -16.4895
22684 5 24.4144 9.83313 -8.17542
18934 2 12.9455 9.26668 -8.20766
18578 2 18.2422 9.12137 -18.4655
19023 4 9.35168 7.63796 -4.0755
18661 5 9.94037 11.5444 -18.4564
25243 2 23.9077 0.893691 -14.3844
25445 5 20.3502 -0.808655 -10.2534
25354 1 22.7874 -0.153161 -10.276
25339 5 20.0892 0.677296 -12.3423
25335 3 21.427 0.276863 -14.4177
25224 3 22.8191 -0.0768868 -16.4037
25222 1 22.5304 1.37331 -18.4986
25209 1 20.0805 0.710326 -18.5202
25207 2 19.7621 2.11399 -20.5506
21493 3 18.908 -0.317815 -8.19575
21484 1 17.5627 0.0406638 -12.3451
21361 4 18.9839 -0.363447 -14.3835
21353 5 18.6971 1.09249 -16.4089
21352 4 17.6265 0.0902713 -18.5262
21226 2 17.3247 1.51698 -20.6035
25111 5 23.9399 1.01387 -20.5382
25349 2 24.1582 -0.529839 -12.309
21693 3 9.89511 -0.33953 -8.2307
18879 2 3.88209 9.30503 -14.4011
21674 3 7.18636 0.514133 -10.3011
21658 1 4.75085 -0.124988 -10.3252
21653 3 6.10281 -0.45058 -12.3393
21639 3 3.3262 0.354521 -14.3669
21583 2 11.2934 -0.699972 -10.3192
21581 4 13.7572 -0.128401 -10.2756
21566 1 8.59418 0.0823245 -12.3305
21564 1 10.9941 0.72223 -12.3153
21563 2 9.91368 -0.261997 -14.3754
21547 1 5.78847 0.968996 -14.3676
21544 4 7.13373 0.544623 -16.4079
21528 1 4.74435 -0.0463918 -16.427
21526 4 4.40431 1.40763 -18.5071
21471 3 15.1285 -0.487593 -12.3102
21469 3 14.8386 0.901114 -14.4221
21454 5 12.402 0.363118 -14.3863
21449 1 13.7867 -0.0473579 -16.4363
21437 5 9.61007 1.15679 -16.4275
21434 2 8.57283 0.164242 -18.4437
21432 5 11.0475 0.771057 -18.5008
21418 5 6.87384 1.91298 -18.5067
21415 1 5.81137 0.977128 -20.5676
21413 3 8.31482 1.6262 -20.5244
21355 4 16.224 0.529993 -16.4477
21340 3 13.4834 1.31495 -18.5178
21338 5 15.9076 1.93787 -18.5005
21337 3 14.8621 0.942519 -20.6377
21323 4 10.7469 2.17563 -20.5716
18752 1 4.98666 10.3606 -18.5008
22467 2 24.1597 11.3401 -16.472
18676 4 12.3667 12.155 -18.5187
22576 2 22.7513 11.7542 -14.4179
25460 4 24.1299 -0.559824 -6.18363
21750 2 3.31557 0.240409 -8.23613
19042 4 3.39509 5.40672 -6.12575
22552 4 18.9951 11.4883 -18.5239
25482 1 26.218 1.25089 -2.03679
21603 4 15.1462 -0.641856 -6.14033
19045 5 3.42485 10.6357 -4.10169
18991 3 4.62046 11.6536 -8.206
18696 4 13.7729 11.733 -14.3981
22446 2 22.8174 11.7536 -20.5472
21764 4 6.02767 -0.570315 -6.15522
19058 3 3.773 9.24494 -2.09276
21713 1 11.2776 -0.776223 -4.09344
18923 3 9.81761 11.4467 -6.12994
22734 4 18.8597 11.4045 -6.17017
21676 5 7.46116 -0.927512 -8.20805
18793 2 9.81839 11.4603 -12.311
22564 4 20.3735 11.1321 -14.3883
18769 4 8.50044 11.8961 -16.4029
21771 3 3.77338 4.04582 -4.13357
18898 4 7.41641 10.8329 -12.3055
18828 3 13.6421 11.6597 -8.21969
18790 1 8.76948 10.4567 -14.3493
18582 3 17.5746 11.9629 -16.4139
25516 3 20.238 -0.840327 -4.12248
21598 4 16.5171 -0.968044 -8.22209
22663 3 18.934 11.5013 -12.3278
21696 1 8.50818 0.0256597 -6.13738
25246 3 24.9073 1.83389 -12.329
25446 2 21.3042 0.244518 -8.16885
25355 1 21.0934 1.65571 -10.2711
25352 1 22.4894 1.25092 -12.3734
25337 3 19.8188 2.06476 -14.3968
25225 2 21.132 1.71605 -16.4822
25208 3 20.817 3.11557 -18.4861
25095 1 22.2227 2.79014 -20.5562
25450 2 19.9408 0.655915 -6.10379
25223 1 23.6346 2.3417 -16.4094
21485 1 18.6602 1.0694 -10.2668
21358 2 17.308 1.48069 -14.4118
21356 4 16.9953 2.93921 -16.4155
21230 5 18.3885 2.50036 -18.5152
25373 3 23.8021 0.85039 -8.23665
21694 3 10.9168 0.637032 -6.16877
21677 5 5.75275 0.892465 -8.23788
21656 3 4.36141 1.34064 -12.3057
21601 1 14.8043 0.816351 -8.24163
21586 3 12.3524 0.24697 -8.29361
21584 4 12.0389 1.66499 -10.2683
21569 4 9.59227 1.07872 -10.2859
21550 3 6.87309 1.8701 -12.2762
21545 2 8.25398 1.53063 -14.3666
25465 1 22.7021 -0.249456 -4.13398
18993 2 4.89719 10.2837 -6.13456
21527 3 5.45063 2.31339 -16.4035
21487 3 16.2812 0.481605 -10.2642
21472 2 13.4309 1.31979 -12.3801
21470 1 15.9102 1.88221 -12.4147
21455 1 10.6683 2.15392 -14.3978
21452 1 12.1001 1.78612 -16.4781
21438 5 7.88875 2.94307 -16.3582
21435 2 9.34238 2.61331 -18.4971
21416 4 6.60313 3.33962 -20.5814
21399 1 4.11207 2.78611 -20.6108
21343 3 14.5709 2.33209 -16.4801
21325 2 11.8106 3.14319 -18.5431
21321 5 13.2358 2.79135 -20.5629
21227 5 15.6527 3.39069 -20.5876
21711 1 13.7296 -0.210638 -4.11724
25517 5 21.2281 0.131114 -2.03102
21727 4 16.4261 -1.06099 -2.07259
21787 3 7.30072 -1.03888 -1.93369
21785 5 7.09166 0.391756 -4.04447
21716 3 12.3619 0.152563 -2.12537
21769 4 4.63034 -0.162979 -4.12736
25483 4 25.4403 -1.03451 -2.08373
21619 4 16.1556 0.406358 -4.08885
25481 4 25.162 0.358567 -4.09541
21800 3 9.90915 -0.520008 -2.06624
21616 3 17.5426 0.0201081 -6.08268
21624 1 18.7904 -0.496746 -2.00346
22575 1 22.0538 9.34197 -14.418
25353 2 23.5658 2.23558 -10.2791
25448 2 19.7112 2.06254 -8.21535
25466 5 20.9549 1.57367 -4.04897
25338 1 20.8209 3.08443 -12.3453
25227 1 22.2047 2.63796 -14.3512
25226 3 21.8672 4.05014 -16.4302
25210 2 19.3964 3.52799 -16.4741
25096 1 20.524 4.54765 -20.5699
25376 5 24.8337 1.86431 -6.20416
25463 1 22.3369 1.21455 -6.15215
25115 3 23.2558 3.74119 -18.4742
21617 2 18.5593 0.939199 -4.08007
21490 3 17.1856 1.39864 -8.21731
21488 2 16.9773 2.86402 -10.2479
21362 5 18.3151 2.47189 -12.2671
21228 4 16.7301 4.35624 -18.4729
21225 5 18.1013 3.94686 -20.6023
21767 5 4.31591 1.21834 -6.14666
21714 4 12.0049 1.57063 -4.18119
21699 1 9.5547 1.00646 -4.09874
21680 2 6.81783 1.79243 -6.12302
21675 2 8.25384 1.53155 -8.22066
21657 4 5.47156 2.30827 -10.3081
21604 5 13.4418 1.24058 -6.1906
21602 4 15.8605 1.80882 -6.1643
25244 2 24.6805 3.25032 -14.3669
21622 2 17.1812 1.42286 -2.00918
21587 3 10.6334 2.05079 -8.19245
21570 2 7.91691 2.88405 -10.2355
21567 4 9.27125 2.50059 -12.3318
21786 2 8.23509 1.28894 -2.00381
21548 1 6.51943 3.31092 -14.3161
21531 1 4.05887 2.71775 -14.3637
21530 2 3.81793 4.05089 -16.4421
21475 5 14.5678 2.25673 -10.3281
21457 3 11.7254 3.05197 -12.3237
21453 4 13.1457 2.69308 -14.3751
21436 1 10.3892 3.54542 -16.4452
21419 3 5.17566 3.68762 -18.5501
21417 5 7.65163 4.38551 -18.506
21359 4 15.6356 3.30826 -14.4193
21344 5 12.821 4.10707 -16.4566
21341 4 14.2735 3.79029 -18.4929
21324 5 11.5235 4.55505 -20.5714
21307 3 9.04298 3.94479 -20.5615
25484 2 23.6873 0.737073 -1.98686
21730 5 14.7623 0.828077 -2.10786
21788 3 5.73225 0.775129 -2.01355
22664 5 22.9871 5.06039 -14.4052
21588 3 11.4083 4.47438 -8.25075
22554 3 21.329 6.91143 -20.6096
25449 4 20.6916 3.04033 -6.13303
25464 5 23.4523 2.13224 -4.09105
25357 2 22.1219 2.62365 -8.24259
25356 4 21.8591 4.08619 -10.232
25340 4 19.4068 3.46583 -10.2613
25228 2 20.5129 4.48068 -14.3438
18687 5 17.4776 6.74193 -18.5308
21623 5 15.5039 3.25762 -2.05177
22731 3 19.1037 4.87619 -12.2846
21679 5 7.60765 4.1944 -6.16051
22556 2 21.6151 5.45824 -18.5501
18705 4 17.7451 5.30573 -16.402
18575 4 18.8377 6.35974 -20.596
22553 3 23.0182 5.16004 -20.6082